 TITLE = "lem_stress_before.tec"
 VARIABLES = "X","Y","Z","Mx","My","Mz", "SD"
 ZONE T="",  N=2137,  E=10919
 F=FEBLOCK, ET=TETRAHEDRON, VARLOCATION=([7]=CELLCENTERED)
  -0.3646895E-17  -0.3646895E-17  -0.7901558E-02  -0.1571880E-01  -0.2336086E-01  -0.3072310E-01  -0.3767850E-01  -0.4406768E-01  -0.4968886E-01  -0.5429332E-01
  -0.5759862E-01  -0.5933661E-01  -0.5933661E-01  -0.5759862E-01  -0.5429332E-01  -0.4968886E-01  -0.4406768E-01  -0.3767850E-01  -0.3072310E-01  -0.2336086E-01
  -0.1571880E-01  -0.7901558E-02  -0.5888258E-01  -0.5888258E-01  -0.5798632E-01  -0.5799504E-01  -0.5798414E-01  -0.5799504E-01  -0.5665544E-01  -0.5665334E-01
  -0.5665281E-01  -0.5665681E-01  -0.5545009E-01  -0.5498335E-01  -0.5495097E-01  -0.5541137E-01  -0.5543864E-01  -0.5496080E-01  -0.5495514E-01  -0.5541231E-01
  -0.5293839E-01  -0.5371069E-01  -0.5289320E-01  -0.5292727E-01  -0.5371518E-01  -0.5290247E-01  -0.5162419E-01  -0.5198110E-01  -0.5063881E-01  -0.5056165E-01
  -0.5178584E-01  -0.5144547E-01  -0.5160812E-01  -0.5195120E-01  -0.5061189E-01  -0.5056801E-01  -0.5178891E-01  -0.5144648E-01  -0.4814723E-01  -0.4953239E-01
  -0.4948087E-01  -0.4804376E-01  -0.4813869E-01  -0.4954306E-01  -0.4949360E-01  -0.4805531E-01  -0.4657539E-01  -0.4837601E-01  -0.4721427E-01  -0.4533207E-01
  -0.4532223E-01  -0.4689206E-01  -0.4778475E-01  -0.4618999E-01  -0.4656242E-01  -0.4834751E-01  -0.4718729E-01  -0.4531078E-01  -0.4532863E-01  -0.4689608E-01
  -0.4778692E-01  -0.4619082E-01  -0.4248583E-01  -0.4506205E-01  -0.4462682E-01  -0.4474927E-01  -0.4227325E-01  -0.4248173E-01  -0.4507064E-01  -0.4463227E-01
  -0.4474525E-01  -0.4227080E-01  -0.4061513E-01  -0.4305059E-01  -0.4179095E-01  -0.3931311E-01  -0.3947463E-01  -0.4221402E-01  -0.4151132E-01  -0.4041917E-01
  -0.4060704E-01  -0.4302786E-01  -0.4176822E-01  -0.3930287E-01  -0.3947887E-01  -0.4221770E-01  -0.4151393E-01  -0.4041985E-01  -0.3617240E-01  -0.3932304E-01
  -0.3840760E-01  -0.3620832E-01  -0.3617308E-01  -0.3932187E-01  -0.3841629E-01  -0.3620984E-01  -0.3383044E-01  -0.3628006E-01  -0.3549487E-01  -0.3264475E-01
  -0.3299339E-01  -0.3666984E-01  -0.3389946E-01  -0.3382612E-01  -0.3626770E-01  -0.3548315E-01  -0.3264016E-01  -0.3299664E-01  -0.3667334E-01  -0.3389976E-01
  -0.3782535E-01  -0.2894699E-01  -0.3200873E-01  -0.2933803E-01  -0.3611199E-01  -0.3780973E-01  -0.2894779E-01  -0.3200659E-01  -0.2934429E-01  -0.3611349E-01
  -0.2661156E-01  -0.2930456E-01  -0.3127840E-01  -0.2885642E-01  -0.2533993E-01  -0.3386537E-01  -0.3235808E-01  -0.2568343E-01  -0.2932603E-01  -0.3006710E-01
  -0.2694704E-01  -0.2660967E-01  -0.2929886E-01  -0.3126943E-01  -0.2885078E-01  -0.2533830E-01  -0.3387019E-01  -0.3237537E-01  -0.2568624E-01  -0.2932955E-01
  -0.3006867E-01  -0.2694757E-01  -0.2135145E-01  -0.2456490E-01  -0.2708962E-01  -0.2577456E-01  -0.2212626E-01  -0.3258630E-01  -0.2135173E-01  -0.2455116E-01
  -0.2709851E-01  -0.2578855E-01  -0.2213953E-01  -0.3258833E-01  -0.1909112E-01  -0.2196571E-01  -0.2405739E-01  -0.2137323E-01  -0.1752999E-01  -0.3011931E-01
  -0.1801111E-01  -0.2146287E-01  -0.2464637E-01  -0.2304264E-01  -0.1950649E-01  -0.1909041E-01  -0.2196342E-01  -0.2405303E-01  -0.2137122E-01  -0.1744716E-01
  -0.3013389E-01  -0.1801594E-01  -0.2146720E-01  -0.2465202E-01  -0.2304449E-01  -0.1950806E-01  -0.2501478E-01  -0.1356299E-01  -0.1685896E-01  -0.1959427E-01
  -0.2178329E-01  -0.1861168E-01  -0.1452224E-01  -0.2628946E-01  -0.2501010E-01  -0.1343509E-01  -0.1684649E-01  -0.1957516E-01  -0.2178349E-01  -0.1861450E-01
  -0.1452713E-01  -0.2629311E-01  -0.1144294E-01  -0.1466421E-01  -0.1685977E-01  -0.1838763E-01  -0.1299957E-01  -0.9543633E-02  -0.1013008E-01  -0.1353680E-01
  -0.1680156E-01  -0.1973210E-01  -0.1569761E-01  -0.1179892E-01  -0.1143540E-01  -0.1465464E-01  -0.1685370E-01  -0.1838045E-01  -0.1290991E-01  -0.9539008E-02
  -0.1013758E-01  -0.1354659E-01  -0.1681229E-01  -0.1973879E-01  -0.1570612E-01  -0.1180655E-01  -0.5578398E-02  -0.9090377E-02  -0.1182541E-01  -0.1394952E-01
  -0.1101876E-01  -0.6655616E-02  -0.5530966E-02  -0.9087771E-02  -0.1181151E-01  -0.1395738E-01  -0.1102629E-01  -0.6661581E-02  -0.3705766E-02  -0.7198718E-02
  -0.1053889E-01  -0.1058055E-01  -0.4787888E-02  -0.1403090E-02  -0.1492780E-01  -0.2189899E-02  -0.5620748E-02  -0.8853682E-02  -0.1215201E-01  -0.7852477E-02
  -0.3855152E-02  -0.3680999E-02  -0.7162412E-02  -0.1048866E-01  -0.1053324E-01  -0.4676272E-02  -0.1358760E-02  -0.1492651E-01  -0.2204586E-02  -0.5642389E-02
  -0.8876001E-02  -0.1216979E-01  -0.7874822E-02  -0.3883099E-02  -0.6653954E-02   0.2394116E-02  -0.1400502E-02  -0.4211529E-02  -0.6174658E-02  -0.8193813E-02
  -0.3329544E-02   0.1295583E-02  -0.6579443E-02   0.2381328E-02  -0.1405416E-02  -0.4207606E-02  -0.6174690E-02  -0.8196863E-02  -0.3333274E-02   0.1288108E-02
   0.4099518E-02   0.1217495E-03  -0.3516902E-02   0.4624689E-05   0.3016901E-02   0.6573336E-02   0.5744645E-02   0.2146880E-02  -0.9022124E-03  -0.3990906E-02
   0.3096539E-03   0.4125355E-02   0.4182105E-02   0.2471167E-03  -0.3394919E-02   0.1146708E-03   0.3062655E-02   0.6557454E-02   0.5721507E-02   0.2113284E-02
  -0.9477783E-03  -0.4031162E-02   0.2474078E-03   0.4059865E-02   0.8038804E-02  -0.3387880E-02   0.1034876E-01   0.6392078E-02   0.2487019E-02   0.1713232E-02
  -0.3908400E-03   0.4652346E-02   0.9182632E-02   0.8106528E-02  -0.3272919E-02   0.1032836E-01   0.6381560E-02   0.2483509E-02   0.1713600E-02  -0.3918398E-03
   0.4649919E-02   0.9170189E-02   0.1193088E-01   0.7677492E-02   0.3530858E-02   0.3508821E-02   0.7100490E-02   0.1070172E-01   0.1437327E-01   0.1357398E-01
   0.9931201E-02   0.6026705E-02   0.5011510E-02   0.8225829E-02   0.1213690E-01   0.1199868E-01   0.7917915E-02   0.3818220E-02   0.3869670E-02   0.7360854E-02
   0.1072686E-01   0.1432136E-01   0.1354504E-01   0.9879849E-02   0.5962379E-02   0.4913863E-02   0.8099411E-02   0.1199540E-01   0.1596582E-01   0.1814650E-01
   0.1409787E-01   0.9478295E-02   0.8164830E-02   0.1242861E-01   0.1699156E-01   0.1601662E-01   0.1813845E-01   0.1409128E-01   0.9474045E-02   0.8163217E-02
   0.1242483E-01   0.1697947E-01   0.1967671E-01   0.1525519E-01   0.9972811E-02   0.1071683E-01   0.1457129E-01   0.1818003E-01   0.2193708E-01   0.2122801E-01
   0.1751633E-01   0.1318668E-01   0.1602479E-01   0.1999134E-01   0.1952542E-01   0.1546905E-01   0.1067676E-01   0.1145962E-01   0.1486072E-01   0.1808845E-01
   0.2194895E-01   0.2118550E-01   0.1743210E-01   0.1305017E-01   0.1579465E-01   0.1975352E-01   0.2362594E-01   0.2572806E-01   0.2197659E-01   0.1812111E-01
   0.2007101E-01   0.2456739E-01   0.1225869E-01   0.2372563E-01   0.2574877E-01   0.2198184E-01   0.1812092E-01   0.2006792E-01   0.2456533E-01   0.1209919E-01
   0.2729011E-01   0.2291816E-01   0.1759532E-01   0.2160617E-01   0.2525947E-01   0.2923474E-01   0.1467287E-01   0.1551127E-01   0.2864966E-01   0.2495358E-01
   0.2145833E-01   0.1897137E-01   0.2352959E-01   0.2759385E-01   0.2686356E-01   0.2223333E-01   0.1934890E-01   0.2106913E-01   0.2520459E-01   0.2924404E-01
   0.1467110E-01   0.1550914E-01   0.2867098E-01   0.2487180E-01   0.2125830E-01   0.1871850E-01   0.2309989E-01   0.2712966E-01   0.3103142E-01   0.3294735E-01
   0.2937665E-01   0.2573438E-01   0.2194224E-01   0.2724434E-01   0.3184367E-01   0.3112348E-01   0.3291391E-01   0.2936084E-01   0.2573243E-01   0.2194056E-01
   0.2725236E-01   0.3188907E-01   0.3462432E-01   0.3059269E-01   0.2584128E-01   0.2788493E-01   0.3206109E-01   0.3610611E-01   0.3569551E-01   0.3193316E-01
   0.2790508E-01   0.2634685E-01   0.3094473E-01   0.3489025E-01   0.3385004E-01   0.2870196E-01   0.2705017E-01   0.3204870E-01   0.3607657E-01   0.3581562E-01
   0.3196728E-01   0.2778159E-01   0.2600079E-01   0.3014639E-01   0.3403094E-01   0.3802342E-01   0.3963866E-01   0.3621297E-01   0.3269947E-01   0.2961551E-01
   0.3432944E-01   0.3885188E-01   0.3820967E-01   0.3951766E-01   0.3617028E-01   0.3268126E-01   0.2960942E-01   0.3435499E-01   0.3893405E-01   0.4147231E-01
   0.3758129E-01   0.3343643E-01   0.3833443E-01   0.4253865E-01   0.4230635E-01   0.3831028E-01   0.3363980E-01   0.3782790E-01   0.4175717E-01   0.4074980E-01
   0.3612009E-01   0.3435200E-01   0.3871616E-01   0.4227861E-01   0.4253461E-01   0.3863868E-01   0.3340880E-01   0.3595232E-01   0.4046149E-01   0.4452287E-01
   0.4573154E-01   0.4229392E-01   0.3888210E-01   0.3558901E-01   0.4103557E-01   0.4529246E-01   0.4484714E-01   0.4550601E-01   0.4220845E-01   0.3884960E-01
   0.3557979E-01   0.4106013E-01   0.4539235E-01   0.4762603E-01   0.4405357E-01   0.3979247E-01   0.4443428E-01   0.4841218E-01   0.4838878E-01   0.4452681E-01
   0.3995237E-01   0.4431761E-01   0.4803811E-01   0.4683846E-01   0.4174938E-01   0.4403242E-01   0.4777316E-01   0.4855298E-01   0.4508821E-01   0.4052485E-01
   0.4659534E-01   0.5000551E-01   0.5102814E-01   0.4756863E-01   0.4373114E-01   0.4728765E-01   0.5094177E-01   0.5057074E-01   0.5085169E-01   0.4752039E-01
   0.4371643E-01   0.4733175E-01   0.5100836E-01   0.5261410E-01   0.4984532E-01   0.5325520E-01   0.5336119E-01   0.5010841E-01   0.5308758E-01   0.5209037E-01
   0.4804964E-01   0.5242151E-01   0.5355584E-01   0.5051779E-01   0.5164000E-01   0.5444696E-01   0.5532531E-01   0.5196669E-01   0.5536519E-01   0.5506435E-01
   0.5544853E-01   0.5202638E-01   0.5533391E-01   0.5644234E-01   0.5430148E-01   0.5689856E-01   0.5704872E-01   0.5459269E-01   0.5682487E-01   0.5581630E-01
   0.5712611E-01   0.5481040E-01   0.5752897E-01   0.5834819E-01   0.5797218E-01   0.5807179E-01   0.5875090E-01   0.5891956E-01   0.5786723E-01   0.5909820E-01
   0.5925786E-01   0.5950479E-01  -0.3282206E-17  -0.3282206E-17  -0.7856905E-02  -0.1561091E-01  -0.2314934E-01  -0.3033866E-01  -0.3701116E-01  -0.4294980E-01
  -0.4787618E-01  -0.5145725E-01  -0.5335885E-01  -0.5335885E-01  -0.5145725E-01  -0.4787618E-01  -0.4294980E-01  -0.3701116E-01  -0.3033866E-01  -0.2314934E-01
  -0.1561091E-01  -0.7856905E-02  -0.5284875E-01  -0.5284875E-01  -0.5187010E-01  -0.5186298E-01  -0.5187010E-01  -0.5186298E-01  -0.5043002E-01  -0.5040987E-01
  -0.5043002E-01  -0.5040987E-01  -0.4911106E-01  -0.4859546E-01  -0.4860881E-01  -0.4907758E-01  -0.4911106E-01  -0.4859546E-01  -0.4860881E-01  -0.4907758E-01
  -0.4652402E-01  -0.4737284E-01  -0.4638651E-01  -0.4652402E-01  -0.4737284E-01  -0.4638651E-01  -0.4496869E-01  -0.4533407E-01  -0.4392959E-01  -0.4406652E-01
  -0.4529582E-01  -0.4476729E-01  -0.4496869E-01  -0.4533407E-01  -0.4392959E-01  -0.4406652E-01  -0.4529582E-01  -0.4476729E-01  -0.4138259E-01  -0.4363295E-01
  -0.4284485E-01  -0.4121115E-01  -0.4138259E-01  -0.4363295E-01  -0.4284485E-01  -0.4121115E-01  -0.3961339E-01  -0.4150500E-01  -0.4026815E-01  -0.3828236E-01
  -0.3849920E-01  -0.4103178E-01  -0.4053022E-01  -0.3935660E-01  -0.3961339E-01  -0.4150500E-01  -0.4026815E-01  -0.3828236E-01  -0.3849920E-01  -0.4103178E-01
  -0.4053022E-01  -0.3935660E-01  -0.3535709E-01  -0.3833047E-01  -0.3749171E-01  -0.3521083E-01  -0.3535709E-01  -0.3833047E-01  -0.3749171E-01  -0.3521083E-01
  -0.3334804E-01  -0.3588629E-01  -0.3449237E-01  -0.3181650E-01  -0.3214267E-01  -0.3543736E-01  -0.3498870E-01  -0.3311101E-01  -0.3334812E-01  -0.3588636E-01
  -0.3449241E-01  -0.3181652E-01  -0.3214267E-01  -0.3543736E-01  -0.3498870E-01  -0.3311101E-01  -0.2839238E-01  -0.3138470E-01  -0.3122602E-01  -0.2855640E-01
  -0.2839238E-01  -0.3138470E-01  -0.3122602E-01  -0.2855640E-01  -0.2623500E-01  -0.2885626E-01  -0.2773633E-01  -0.2462314E-01  -0.3330653E-01  -0.2496803E-01
  -0.2813524E-01  -0.2856381E-01  -0.2627878E-01  -0.2623549E-01  -0.2885680E-01  -0.2773674E-01  -0.2462327E-01  -0.3330653E-01  -0.2496803E-01  -0.2813524E-01
  -0.2856381E-01  -0.2627878E-01  -0.3047838E-01  -0.2098299E-01  -0.2419337E-01  -0.2667668E-01  -0.2463044E-01  -0.2132486E-01  -0.3036462E-01  -0.3047903E-01
  -0.2098305E-01  -0.2419340E-01  -0.2667668E-01  -0.2463044E-01  -0.2132486E-01  -0.3036462E-01  -0.1876074E-01  -0.2139206E-01  -0.2405055E-01  -0.1999707E-01
  -0.1709954E-01  -0.1741648E-01  -0.2076399E-01  -0.2358188E-01  -0.2193898E-01  -0.1904920E-01  -0.1876269E-01  -0.2139539E-01  -0.2405264E-01  -0.1999880E-01
  -0.1710123E-01  -0.1741648E-01  -0.2076399E-01  -0.2358188E-01  -0.2193911E-01  -0.1904999E-01  -0.1326604E-01  -0.1659566E-01  -0.1918749E-01  -0.1740026E-01
  -0.1370191E-01  -0.1326698E-01  -0.1659588E-01  -0.1918754E-01  -0.1740026E-01  -0.1370191E-01  -0.1131088E-01  -0.1367228E-01  -0.1581083E-01  -0.1273294E-01
  -0.9339548E-02  -0.2058475E-01  -0.9645976E-02  -0.1303392E-01  -0.1593945E-01  -0.1480784E-01  -0.1144285E-01  -0.1131732E-01  -0.1371389E-01  -0.1586044E-01
  -0.1273661E-01  -0.9343430E-02  -0.2058476E-01  -0.9647064E-02  -0.1303665E-01  -0.1594263E-01  -0.1480903E-01  -0.1144565E-01  -0.1467859E-01  -0.5372619E-02
  -0.8989930E-02  -0.1165745E-01  -0.1391601E-01  -0.9782872E-02  -0.5919546E-02  -0.1769301E-01  -0.1469267E-01  -0.5376635E-02  -0.8991248E-02  -0.1165773E-01
  -0.1391606E-01  -0.9781382E-02  -0.5918560E-02  -0.1769491E-01  -0.3735538E-02  -0.7193911E-02  -0.6648789E-02  -0.9333661E-02  -0.5394622E-02  -0.1548260E-02
  -0.1828098E-02  -0.5304665E-02  -0.8337875E-02  -0.1120338E-01  -0.7313425E-02  -0.3616455E-02  -0.3753747E-02  -0.7242833E-02  -0.6649784E-02  -0.9372591E-02
  -0.5427081E-02  -0.1564208E-02  -0.1832496E-02  -0.5310965E-02  -0.8346720E-02  -0.1120904E-01  -0.7330180E-02  -0.3635010E-02   0.2465325E-02  -0.1231828E-02
  -0.4926167E-02  -0.5530849E-02  -0.2078195E-02   0.1962716E-02   0.2456159E-02  -0.1234799E-02  -0.4927215E-02  -0.5530489E-02  -0.2073259E-02   0.1955800E-02
   0.4004993E-02  -0.5121209E-03  -0.1800838E-02   0.2228249E-02   0.6209685E-02   0.5981661E-02   0.2156277E-02  -0.8401023E-03  -0.3616671E-02   0.5757255E-03
   0.4325013E-02   0.3971160E-02  -0.5392467E-03  -0.1820317E-02   0.2177482E-02   0.6178658E-02   0.5959067E-02   0.2129988E-02  -0.8728928E-03  -0.3649714E-02
   0.5251986E-03   0.4270268E-02   0.8143223E-02   0.1019551E-01   0.6469997E-02   0.2400727E-02   0.5755558E-02   0.9879509E-02   0.8140261E-02   0.1019033E-01
   0.6456833E-02   0.2397553E-02   0.5746476E-02   0.9837133E-02   0.1198338E-01   0.7503247E-02   0.5973520E-02   0.9746081E-02   0.1388465E-01   0.1799247E-02
   0.1374377E-01   0.9568345E-02   0.5558348E-02   0.4828690E-02   0.8382912E-02   0.1225209E-01   0.1191066E-01   0.7466560E-02   0.5951843E-02   0.9743494E-02
   0.1391694E-01   0.1795148E-02   0.1367323E-01   0.9499632E-02   0.5502373E-02   0.4752316E-02   0.8258843E-02   0.1214728E-01   0.1602262E-01   0.2450855E-02
   0.1785184E-01   0.1407662E-01   0.1098196E-01   0.8798743E-02   0.1352567E-01   0.1755843E-01   0.1600935E-01   0.2408126E-02   0.1786940E-01   0.1408497E-01
   0.1098131E-01   0.8793804E-02   0.1350037E-01   0.1751429E-01   0.1982129E-01   0.1562628E-01   0.1071846E-01   0.1272772E-01   0.1711478E-01   0.2136955E-01
   0.2130051E-01   0.1700331E-01   0.1167158E-01   0.1617140E-01   0.1987161E-01   0.1960129E-01   0.1548686E-01   0.1068411E-01   0.1274043E-01   0.1718171E-01
   0.2143633E-01   0.2115140E-01   0.1681314E-01   0.1150547E-01   0.1594111E-01   0.1971422E-01   0.2358623E-01   0.2527237E-01   0.2140542E-01   0.1753840E-01
   0.1713296E-01   0.2096987E-01   0.2494273E-01   0.1220270E-01   0.2347958E-01   0.2528071E-01   0.2140391E-01   0.1753971E-01   0.1712985E-01   0.2094802E-01
   0.2485267E-01   0.1201318E-01   0.2728600E-01   0.2332965E-01   0.1895627E-01   0.2416331E-01   0.2854240E-01   0.2870239E-01   0.2455258E-01   0.1928883E-01
   0.2331977E-01   0.2692159E-01   0.2679257E-01   0.2298942E-01   0.1900197E-01   0.2436369E-01   0.2859466E-01   0.2842207E-01   0.2417914E-01   0.1893352E-01
   0.2290640E-01   0.2675573E-01   0.3078156E-01   0.3232309E-01   0.2849611E-01   0.2359938E-01   0.2423881E-01   0.2799826E-01   0.3185318E-01   0.3058027E-01
   0.3225673E-01   0.2848150E-01   0.2359592E-01   0.2424080E-01   0.2795220E-01   0.3170575E-01   0.3432974E-01   0.3049390E-01   0.2681406E-01   0.3109324E-01
   0.3536570E-01   0.3573900E-01   0.3209420E-01   0.2753410E-01   0.2953847E-01   0.3354121E-01   0.3350113E-01   0.2934859E-01   0.2717306E-01   0.3138337E-01
   0.3513689E-01   0.3540158E-01   0.3145891E-01   0.2681475E-01   0.2890568E-01   0.3342376E-01   0.3757219E-01   0.3882371E-01   0.3537709E-01   0.3076676E-01
   0.3379209E-01   0.3834170E-01   0.3710216E-01   0.3870373E-01   0.3533147E-01   0.3073234E-01   0.3371160E-01   0.3809900E-01   0.4078761E-01   0.3707706E-01
   0.3282064E-01   0.3743189E-01   0.4158852E-01   0.4223157E-01   0.3883507E-01   0.3499783E-01   0.3952755E-01   0.3969179E-01   0.3467315E-01   0.3700880E-01
   0.4103906E-01   0.4170889E-01   0.3820044E-01   0.3364478E-01   0.3979619E-01   0.4332325E-01   0.4452114E-01   0.4125498E-01   0.3840237E-01   0.4428468E-01
   0.4306880E-01   0.4452928E-01   0.4128223E-01   0.3831617E-01   0.4402516E-01   0.4607548E-01   0.4311260E-01   0.4676200E-01   0.4776784E-01   0.4468340E-01
   0.4091481E-01   0.4495477E-01   0.4537912E-01   0.4123334E-01   0.4610100E-01   0.4708042E-01   0.4389126E-01   0.4508175E-01   0.4805323E-01   0.4911254E-01
   0.4595991E-01   0.4276167E-01   0.4945960E-01   0.4818415E-01   0.4959891E-01   0.4608987E-01   0.4273751E-01   0.4923780E-01   0.5022109E-01   0.4787166E-01
   0.5069079E-01   0.5178324E-01   0.4910546E-01   0.4976232E-01   0.5099109E-01   0.4844107E-01   0.5133822E-01   0.5232280E-01   0.5180150E-01   0.5237654E-01
   0.5280548E-01   0.5228841E-01   0.5300864E-01   0.5354973E-01   0.4101738E-01   0.3318705E-01   0.3350377E-01   0.4003173E-01   0.4718001E-02  -0.4963695E-03
   0.4709360E-02   0.7375645E-02   0.4560745E-01   0.3821639E-01   0.4101773E-01   0.3801438E-01   0.5199397E-02   0.2264290E-02  -0.3317769E-02  -0.4258721E-02
  -0.5406900E-02  -0.6977227E-03   0.1685862E-02   0.1400133E-01   0.1943415E-01   0.1868709E-01   0.1310373E-01   0.1090045E-01   0.1258339E-01   0.1688898E-01
   0.1897253E-01   0.9675928E-02   0.1224340E-01  -0.2338994E-01  -0.1819152E-01  -0.2291986E-01  -0.1529549E-01  -0.1892120E-01  -0.1634767E-01  -0.2005751E-01
   0.1575715E-01   0.1643927E-01   0.1445397E-01   0.1022137E-01  -0.1307110E-01  -0.1012741E-01   0.3046226E-02   0.1240745E-01   0.6912824E-02   0.9717210E-02
  -0.1209057E-01  -0.7420697E-02  -0.1313644E-01  -0.6368636E-04  -0.1234714E-03  -0.2334992E-02  -0.4864753E-02  -0.1619768E-02  -0.7437101E-02  -0.6892478E-02
  -0.8227787E-02  -0.2169885E-02  -0.1033452E-01   0.4580501E-01   0.4166195E-01   0.4210067E-01   0.1214340E-02   0.9033085E-02   0.8107929E-02   0.7183776E-02
   0.2208280E-01   0.2107214E-01   0.1690236E-01   0.1129942E-01   0.1502971E-01   0.5616587E-02   0.7603865E-02   0.1568182E-01   0.1217690E-01   0.4742399E-02
   0.1146257E-03   0.1402332E-02   0.5992379E-02   0.5217988E-02   0.2562079E-02   0.1890089E-01   0.2291944E-01  -0.5078053E-02  -0.1041028E-02   0.5642092E-02
  -0.2033263E-02  -0.7992129E-04   0.4207357E-02   0.2755944E-01   0.2338729E-01   0.2392810E-01   0.2959718E-01  -0.1352689E-01  -0.6911430E-02  -0.7736595E-02
  -0.4967183E-02  -0.8078935E-02  -0.3647495E-02  -0.3355096E-02   0.2035520E-02  -0.1088640E-01   0.3819251E-01   0.3812789E-01   0.3536449E-01   0.3827118E-01
   0.4129465E-01   0.3536798E-01  -0.4614262E-02  -0.7160694E-02  -0.2388487E-02  -0.7748102E-02  -0.6662428E-02   0.3632504E-01   0.3882004E-01   0.3031844E-01
   0.3012083E-01   0.3510104E-01   0.2630002E-01   0.3330861E-01   0.2839292E-01   0.3323709E-01   0.3707370E-01   0.3900914E-01   0.4366141E-01   0.4239701E-01
   0.3530331E-01   0.2180272E-01   0.1468346E-01   0.2219623E-01   0.1871235E-01   0.1540737E-01   0.1904705E-01   0.2485097E-01  -0.4836191E-01   0.2875425E-01
   0.2240667E-01   0.2492803E-01  -0.1698714E-01  -0.2078542E-01  -0.1634130E-01  -0.2173692E-01  -0.2416319E-01  -0.2334941E-01  -0.2775358E-01  -0.2223144E-01
  -0.1468564E-01  -0.1387642E-01   0.3091213E-01   0.2848987E-01   0.2463264E-01   0.2970050E-01   0.1566503E-01   0.1219825E-01   0.1881162E-01   0.4540744E-01
   0.9916441E-02   0.1713329E-01   0.2578680E-01   0.1865925E-01   0.2413409E-01   0.2279624E-01   0.1159495E-01   0.2464922E-01   0.2122844E-01   0.1383541E-01
   0.2398966E-01  -0.9793452E-03  -0.4653326E-02   0.3112172E-02  -0.1934534E-02  -0.7165947E-02  -0.7742131E-02  -0.8663543E-02  -0.2861854E-02   0.2928614E-02
  -0.5275180E-02   0.7676899E-02   0.2026775E-02   0.3588434E-02   0.2236718E-02   0.9104369E-02   0.6628745E-02   0.5875797E-02  -0.1269966E-01  -0.9060971E-02
  -0.1625141E-01   0.4143987E-01  -0.3536990E-01  -0.3931013E-01  -0.4084061E-01  -0.3518031E-01  -0.2207380E-01  -0.2053085E-01  -0.3812393E-01  -0.3841116E-01
  -0.4278611E-01  -0.3917935E-01  -0.4098067E-01  -0.4418040E-01  -0.4382443E-01  -0.4737368E-01  -0.1469293E-01  -0.3357553E-01  -0.4002823E-01  -0.3694328E-01
  -0.3541996E-01  -0.1692661E-01  -0.1199245E-01  -0.3408726E-02  -0.4259040E-01  -0.3692998E-01  -0.4521717E-01  -0.9160579E-02  -0.1222175E-01  -0.1053670E-01
  -0.5064736E-02  -0.5753738E-02   0.8872064E-02   0.7176703E-02   0.1483113E-02   0.4741470E-02  -0.4337858E-01  -0.4335475E-01  -0.4455485E-01  -0.4123590E-01
  -0.4213679E-01  -0.3243455E-01  -0.3567542E-01   0.2169744E-01   0.2720943E-01   0.2948432E-01   0.1939884E-01   0.2720899E-01   0.2121905E-01   0.2076397E-01
   0.1164059E-01   0.2162413E-01   0.1866861E-01   0.1128289E-01   0.2214238E-01   0.1971845E-01   0.2382625E-01   0.1719712E-01   0.8140998E-02   0.1369018E-01
   0.3620290E-03   0.7717584E-02  -0.3896564E-01   0.6372177E-02   0.9886551E-02   0.1966249E-01   0.2243580E-01  -0.2889850E-01  -0.3523327E-01   0.1516450E-01
   0.1983582E-01   0.2711471E-01   0.2186495E-01   0.2404443E-01   0.1778290E-01  -0.1181625E-02   0.4833193E-02  -0.4042848E-01  -0.3481253E-01  -0.4331322E-01
  -0.3880665E-01  -0.3028322E-01  -0.2832491E-01  -0.2820112E-01  -0.4549501E-01  -0.2346710E-01  -0.1830256E-01   0.1366219E-01   0.2535648E-01   0.2363039E-01
   0.1499233E-01  -0.2477177E-01  -0.3520551E-01  -0.3888198E-01  -0.3997270E-02  -0.7603349E-02  -0.3130852E-01  -0.2730123E-01  -0.1117559E-01  -0.1793839E-01
  -0.1736929E-01  -0.4234975E-01  -0.2954938E-01  -0.3421014E-01   0.7502178E-02   0.8429712E-02   0.1671372E-01   0.7984820E-02  -0.4799717E-01   0.3358737E-02
   0.3263155E-01   0.3298159E-01   0.1067599E-01  -0.5938181E-02  -0.3711900E-02  -0.1264474E-02  -0.3714164E-02  -0.6141867E-02  -0.1075486E-01   0.1875313E-02
   0.1001873E-02  -0.3865701E-02  -0.3736113E-02  -0.8502231E-02   0.2611355E-02  -0.4457232E-01  -0.4752059E-01  -0.2877517E-01  -0.1848914E-01  -0.2448112E-01
  -0.2541319E-01  -0.2330097E-01   0.3504336E-02   0.9603447E-02   0.1419498E-01   0.1650285E-01   0.5535160E-02  -0.1905152E-02  -0.2843713E-01  -0.2836019E-01
  -0.2405367E-01   0.5378988E-03   0.3293123E-02  -0.8488365E-02  -0.5046774E-02   0.1474783E-01   0.1328981E-01  -0.1812811E-01  -0.2094770E-01  -0.2230653E-01
  -0.2693127E-01   0.4091673E-01   0.3809226E-01   0.4336815E-01  -0.2305375E-01   0.4634862E-02   0.9696582E-02  -0.9099464E-02  -0.1164635E-01  -0.3351693E-01
  -0.4548604E-01  -0.3780545E-01   0.1554088E-01  -0.2907633E-01  -0.3113845E-01  -0.1641799E-01  -0.2005324E-01  -0.2223986E-01  -0.2784149E-01  -0.1245664E-01
   0.4682488E-01   0.4451534E-01   0.4788043E-01   0.4392720E-01   0.4173492E-01   0.2433713E-01   0.2759987E-01   0.2965781E-01  -0.4379123E-01  -0.3467722E-01
  -0.1062117E-01  -0.3921809E-02  -0.4735942E-02  -0.4408729E-02  -0.2043258E-02  -0.9533239E-02  -0.5440424E-03   0.1354752E-02   0.5046148E-03  -0.1238554E-01
  -0.1159789E-01  -0.3070274E-01  -0.1766740E-01   0.1657955E-01   0.2158546E-01   0.1939696E-01   0.3775799E-01   0.4153327E-01   0.2509382E-01   0.4435053E-01
   0.2890051E-01   0.1041864E-01   0.1758610E-01   0.1317886E-01   0.9850306E-02   0.1438091E-01   0.1821477E-01   0.2082108E-01   0.2073133E-01   0.9401780E-02
  -0.1536657E-01  -0.1570508E-01  -0.1824289E-01  -0.1246796E-01  -0.4442332E-01  -0.3959287E-01  -0.4648895E-02  -0.1230008E-01  -0.1279635E-01  -0.7451730E-02
  -0.3564022E-01  -0.4535492E-01  -0.1563349E-01  -0.1602132E-01  -0.1111631E-01  -0.8822285E-02  -0.1387465E-01   0.3675438E-01  -0.7497322E-02  -0.1469853E-01
   0.3097744E-01   0.3538676E-01   0.3083733E-01   0.2911053E-01  -0.1499803E-01  -0.6861092E-02  -0.1678445E-01   0.8524702E-02  -0.1544996E-02  -0.5056785E-02
  -0.7075147E-02  -0.6778004E-02  -0.5203107E-02  -0.1466555E-02  -0.4556990E-02   0.2197464E-01   0.2722089E-01   0.2752515E-01   0.2627317E-01   0.2097338E-01
  -0.2792314E-01  -0.2311741E-01  -0.2216755E-01   0.3103257E-01  -0.1879365E-01  -0.1719036E-01  -0.6660084E-02   0.4430554E-01  -0.1160942E-01  -0.5883971E-02
  -0.1075018E-01   0.2504139E-02   0.6427707E-02  -0.5181168E-02  -0.7406387E-02  -0.1073712E-01   0.1132001E-02   0.2474968E-02   0.2791711E-02   0.2940669E-01
   0.2608846E-01   0.2312382E-01   0.1624526E-01   0.2032229E-01   0.2636375E-01   0.2552222E-01   0.6947452E-02   0.1614786E-02   0.2088311E-01  -0.2834648E-01
  -0.3211719E-01  -0.2632911E-01  -0.2818053E-01  -0.2944787E-01  -0.2209572E-01  -0.1585587E-01  -0.4367387E-02  -0.5403515E-02  -0.2126459E-01  -0.2738405E-01
  -0.2811620E-01   0.4993231E-04  -0.7290516E-03  -0.1812263E-01  -0.1350033E-01  -0.1861780E-01  -0.1115523E-01  -0.1705634E-01  -0.1729846E-01   0.7651129E-02
   0.1604175E-01   0.1253068E-01   0.1848251E-01   0.6611974E-02   0.2573443E-01   0.1694020E-01  -0.3547576E-01  -0.3829865E-01  -0.3578393E-01  -0.4129385E-01
  -0.3384543E-01  -0.2750578E-01  -0.2849503E-01  -0.2958452E-01  -0.2299929E-01  -0.4024912E-01  -0.3811503E-01  -0.4594812E-01  -0.1686856E-01  -0.2413074E-01
   0.1041645E-01   0.2627294E-01  -0.4147791E-02  -0.1907513E-01  -0.5627227E-02   0.1451529E-01   0.1046879E-01   0.1698392E-01  -0.2251017E-01  -0.1313086E-01
  -0.1641804E-01  -0.1866156E-01   0.3037129E-01   0.3455560E-01   0.2588954E-01   0.3215295E-01   0.3098170E-01  -0.1437803E-02  -0.1005015E-01  -0.9822118E-02
  -0.1936786E-01   0.4510271E-01   0.3711488E-01  -0.3312266E-01  -0.8556791E-02  -0.2815154E-01  -0.3112046E-01  -0.4250247E-02  -0.1622643E-02  -0.2718411E-01
  -0.3057159E-01   0.1401262E-01  -0.7067748E-02  -0.5888788E-02  -0.1030311E-01  -0.6996163E-02  -0.6927841E-02  -0.1055859E-01  -0.3053033E-02  -0.1370282E-01
  -0.1018644E-01  -0.6137864E-02  -0.1797821E-03  -0.3506989E-02  -0.1544184E-01  -0.1222261E-01   0.1916439E-02  -0.2260260E-01  -0.2288413E-01  -0.2210529E-01
  -0.1795122E-01  -0.2266361E-01  -0.2076708E-01  -0.2388921E-01  -0.1297978E-01  -0.1460404E-01   0.3985276E-03  -0.7058898E-02   0.8108304E-04  -0.2246391E-01
  -0.2980528E-01  -0.1682853E-01   0.7905967E-02   0.1357476E-01   0.1787986E-01   0.1456214E-01   0.5810207E-02   0.5898173E-02   0.8141863E-02   0.1322478E-01
  -0.1542123E-01   0.9742180E-02   0.5067438E-02  -0.9262898E-02   0.2969848E-01  -0.1716208E-01  -0.2864623E-01  -0.2456259E-01  -0.2968519E-01   0.6744405E-02
   0.1928967E-01   0.1343764E-01   0.3573951E-01   0.3178661E-01   0.2986299E-01   0.1763108E-01   0.2302057E-02  -0.2066882E-01  -0.2893902E-01  -0.3541820E-01
  -0.3284387E-01   0.5471925E-02  -0.1430812E-02  -0.1323348E-01   0.4445402E-01   0.3612141E-01   0.1246428E-01   0.1317787E-01   0.5982290E-02   0.1324818E-01
   0.9632012E-02  -0.1544802E-01  -0.1083410E-01  -0.1101085E-01  -0.1859153E-01  -0.2232231E-01  -0.2462272E-01  -0.2258840E-01  -0.2198491E-01  -0.1754062E-01
  -0.2589549E-01  -0.2861097E-01  -0.2254273E-01  -0.2519733E-01  -0.2690623E-01  -0.2283091E-01  -0.1982890E-01  -0.2941036E-01   0.7948437E-02   0.4662945E-02
   0.3420905E-02  -0.4377350E-02   0.2913733E-01  -0.7939792E-02  -0.1835367E-01  -0.2002869E-01  -0.2575994E-01  -0.1758006E-01  -0.1496693E-01   0.3177059E-01
   0.3155469E-01   0.4272677E-01   0.4707187E-01  -0.1544594E-01  -0.2351341E-01  -0.1919384E-01  -0.2916371E-01  -0.2908565E-01  -0.2623641E-01  -0.2160523E-01
  -0.1778563E-01  -0.1320210E-02  -0.1101593E-01   0.5746576E-03   0.2011132E-02   0.3371549E-01   0.1362991E-01   0.1940581E-01  -0.5687370E-03  -0.5608836E-03
  -0.4307921E-02  -0.3081344E-01  -0.6277960E-02  -0.2573793E-01   0.2760835E-02   0.1926282E-01   0.1214667E-01   0.1409084E-01   0.1710644E-01   0.1128463E-01
   0.1807483E-01  -0.4447075E-02  -0.1300375E-01  -0.9538384E-02   0.4183305E-01   0.3506058E-01   0.1246784E-01   0.1164078E-01   0.3512192E-01  -0.2869606E-02
  -0.1393330E-02   0.1175278E-01  -0.1098194E-01  -0.1191553E-01  -0.1971101E-01  -0.2482101E-01  -0.1274659E-01  -0.9893438E-02  -0.1763249E-01   0.4422269E-02
   0.2862624E-01  -0.8439543E-02  -0.1647129E-01  -0.1544425E-01  -0.8394647E-02  -0.3036023E-01  -0.2645188E-01  -0.3035286E-01  -0.2882650E-01  -0.3249726E-01
  -0.3264764E-01  -0.1616777E-01  -0.1732113E-01  -0.1236795E-02  -0.1068078E-01  -0.1328310E-01  -0.1536071E-02  -0.8706523E-02  -0.1515004E-01  -0.1423808E-01
  -0.2207911E-01  -0.2189715E-01  -0.1681609E-01  -0.1724693E-01  -0.1497118E-01  -0.1113277E-01  -0.2102110E-01  -0.2814443E-01  -0.1950773E-01  -0.1477953E-01
  -0.2603503E-01  -0.2591444E-01   0.3977528E-03   0.2293487E-02   0.1583118E-01   0.1972861E-01   0.2318471E-01   0.2564434E-01   0.3202707E-01   0.2074070E-01
   0.2456675E-01   0.2754129E-01   0.5162793E-02  -0.2246817E-01  -0.2754141E-01  -0.2524613E-01  -0.2495318E-01  -0.3230429E-01  -0.1940899E-01  -0.3925419E-01
  -0.3657273E-01  -0.4324626E-01   0.2342757E-01  -0.2773548E-01  -0.2932993E-01   0.3400959E-01   0.7821365E-02  -0.1275460E-01  -0.6255353E-02  -0.2897879E-02
  -0.9342309E-02  -0.5375931E-02   0.7516644E-02   0.7828834E-02   0.2289453E-02   0.5911695E-02   0.1152122E-01   0.2167129E-02   0.8129581E-02   0.1028819E-01
   0.1332954E-01   0.8619200E-02   0.3110769E-01   0.3804245E-01   0.2874945E-01   0.2322931E-01   0.2785780E-01   0.2899159E-01   0.1520841E-01  -0.7927137E-02